unknown system                          
           1
    20.000000    0.000000    0.000000
     0.000000   21.845664    0.000000
     0.000000    0.000000   22.475390
   C    H 
     2     4
Direct configuration=     1
   0.50000000  0.50000000  0.52969826
   0.50000000  0.50000000  0.47030174
   0.50000000  0.54224326  0.55506890
   0.50000000  0.45775674  0.55506890
   0.50000000  0.54224326  0.44493110
   0.50000000  0.45775674  0.44493110
Direct configuration=     2
   0.50030585  0.50007869  0.52921034
   0.49960258  0.50002324  0.47056447
   0.50274579  0.54334982  0.55719745
   0.49791678  0.45668116  0.55463395
   0.49960954  0.54252033  0.44593404
   0.50082773  0.45622438  0.44493927
Direct configuration=     3
   0.50060420  0.50028316  0.52943490
   0.49925122  0.49979759  0.47043822
   0.50481565  0.54091549  0.55654374
   0.49645012  0.45679377  0.55381082
   0.49955015  0.54429352  0.44527636
   0.50092066  0.45702729  0.44589297
Direct configuration=     4
   0.50085145  0.50019797  0.52988531
   0.49897394  0.50000196  0.47004107
   0.50628954  0.54067979  0.55657838
   0.49591016  0.45712530  0.55328000
   0.49998440  0.54281054  0.44541763
   0.49991313  0.45698310  0.44560816
Direct configuration=     5
   0.50104229  0.49992734  0.53006461
   0.49878713  0.50027651  0.46986631
   0.50724982  0.54323066  0.55781107
   0.49613810  0.45583387  0.55425355
   0.50095739  0.54210238  0.44431061
   0.49770349  0.45638464  0.44445450
Direct configuration=     6
   0.50122617  0.49980524  0.53026452
   0.49867200  0.50026710  0.46992615
   0.50703670  0.54173349  0.55626959
   0.49720162  0.45626783  0.55497190
   0.50232673  0.54321378  0.44206472
   0.49465798  0.45791612  0.44440359
Direct configuration=     7
   0.50137589  0.49960312  0.53015951
   0.49863452  0.50052806  0.47008425
   0.50669872  0.54060290  0.55496735
   0.49852255  0.45764060  0.55534756
   0.50345302  0.54149091  0.44257751
   0.49120067  0.45868999  0.44417987
Direct configuration=     8
   0.50149467  0.49929275  0.52954302
   0.49858972  0.50067253  0.47038929
   0.50727566  0.54386500  0.55633515
   0.49929953  0.45686627  0.55657826
   0.50442710  0.54105086  0.44378108
   0.48798417  0.45863489  0.44411854
Direct configuration=     9
   0.50170223  0.49938090  0.52940808
   0.49841561  0.50037212  0.47054531
   0.50791941  0.54216428  0.55486273
   0.49932934  0.45726791  0.55651550
   0.50534672  0.54398595  0.44403645
   0.48598921  0.45954831  0.44514508
Direct configuration=    10
   0.50197381  0.49955217  0.52967194
   0.49820802  0.50037201  0.47029567
   0.50937061  0.53981104  0.55318554
   0.49841974  0.45821746  0.55543616
   0.50514850  0.54360295  0.44656825
   0.48487717  0.45927932  0.44519909
Direct configuration=    11
   0.50218892  0.49932034  0.52955413
   0.49791597  0.50036677  0.47006444
   0.51300709  0.54514994  0.55626864
   0.49648740  0.45654458  0.55562045
   0.50449207  0.54324877  0.44820585
   0.48475360  0.45881486  0.44448639
Direct configuration=    12
   0.50254973  0.49954848  0.52985350
   0.49750186  0.50006293  0.47004120
   0.51509126  0.54257820  0.55527196
   0.49451774  0.45648112  0.55540121
   0.50416482  0.54593120  0.44663065
   0.48560654  0.45967681  0.44396102
Direct configuration=    13
   0.50293287  0.49980558  0.53021698
   0.49716474  0.50032232  0.47010838
   0.51606628  0.53661846  0.55271517
   0.49318639  0.45841418  0.55463730
   0.50336666  0.54375377  0.44611775
   0.48620829  0.45967731  0.44262185
Direct configuration=    14
   0.50283979  0.49881817  0.52937797
   0.49685385  0.50064126  0.47036048
   0.52211939  0.54705695  0.56004248
   0.49195284  0.45783002  0.55548980
   0.50316461  0.54128983  0.44516908
   0.48644287  0.46031605  0.44244006
Direct configuration=    15
   0.50311937  0.49879718  0.52921705
   0.49652298  0.50067772  0.47061288
   0.52250025  0.54521933  0.55942029
   0.49157178  0.45692437  0.55694260
   0.50450224  0.54351660  0.44205550
   0.48572147  0.46064668  0.44362439
Direct configuration=    16
   0.50370566  0.49944362  0.53006363
   0.49632516  0.50117132  0.47034772
   0.51758760  0.53242345  0.55140476
   0.49280644  0.45903793  0.55608920
   0.50571851  0.54188480  0.44278297
   0.48351725  0.45926776  0.44478225
Direct configuration=    17
   0.50312021  0.49748048  0.52887981
   0.49616664  0.50142598  0.47011603
   0.52675506  0.55474965  0.56529129
   0.49374410  0.45866198  0.55535918
   0.50718673  0.54037490  0.44448509
   0.48087977  0.45934786  0.44692535
Direct configuration=    18
   0.50310761  0.49714181  0.52817062
   0.49594827  0.50116890  0.47017631
   0.52992172  0.56252836  0.57008703
   0.49368941  0.45381038  0.55838925
   0.50979479  0.54411257  0.44298071
   0.47793386  0.45983866  0.44839809
Direct configuration=    19
   0.50342612  0.49726888  0.52878566
   0.49593841  0.50139838  0.46987633
   0.52776115  0.55735917  0.56683143
   0.49540206  0.45662205  0.55695815
   0.51027185  0.54220214  0.44451382
   0.47419759  0.45982419  0.44776743
Direct configuration=    20
   0.50421700  0.49850610  0.53008819
   0.49586089  0.50141130  0.46969512
   0.52036743  0.53781319  0.55466409
   0.49668802  0.46087817  0.55534027
   0.50961572  0.53980959  0.44568366
   0.47239327  0.46249117  0.44691466
Direct configuration=    21
   0.50511134  0.50057406  0.53026613
   0.49555599  0.50068608  0.47043836
   0.51538241  0.52154167  0.54384734
   0.49408088  0.45303174  0.56046622
   0.51067316  0.54510160  0.44198613
   0.47184828  0.46518941  0.44523872
Direct configuration=    22
   0.49302240  0.47579982  0.51372566
   0.49555675  0.50076553  0.47135502
   0.66469537  0.81768384  0.73564387
   0.49291386  0.45599900  0.55785977
   0.50883750  0.54299048  0.44360769
   0.47072911  0.46480021  0.44208458
Direct configuration=    23
   0.48084440  0.44764672  0.50404627
   0.49571802  0.50432926  0.46566208
   0.81400361  0.11381295  0.92742694
   0.49175175  0.45924092  0.55415423
   0.50675929  0.53819697  0.44887075
   0.46899405  0.46556573  0.43338102
Direct configuration=    24
   0.46975841  0.42217135  0.49372744
   0.49329382  0.50040517  0.46307943
   0.96331221  0.40993910  0.11921022
   0.48736632  0.45784733  0.54735527
   0.52445357  0.59022041  0.42778141
   0.46864756  0.47192659  0.42444580
Direct configuration=    25
   0.45986550  0.39865191  0.48410267
   0.49078004  0.49524419  0.46014370
   0.11262441  0.70607087  0.31099361
   0.47512164  0.44859067  0.53230034
   0.53907288  0.63311521  0.41071739
   0.46597745  0.48663714  0.41564545
Direct configuration=    26
   0.45064185  0.37655512  0.47498471
   0.48852420  0.48924030  0.45733547
   0.26193739  0.00220141  0.50278106
   0.45652304  0.43206219  0.50830706
   0.55324302  0.67488542  0.39405404
   0.45897315  0.50278221  0.40776018
Direct configuration=    27
   0.44173394  0.35569780  0.46613460
   0.48589022  0.48280164  0.45402914
   0.41125037  0.29832810  0.69456690
   0.43579477  0.40959783  0.47775527
   0.56735750  0.71652371  0.37743283
   0.45490361  0.51533360  0.40915835
Direct configuration=    28
   0.43294526  0.33542282  0.45722392
   0.48266433  0.47651458  0.45007445
   0.56056947  0.59447392  0.88631230
   0.41519840  0.38582032  0.44706597
   0.58146241  0.75813750  0.36081494
   0.45638304  0.52038812  0.41924606
Direct configuration=    29
   0.42419696  0.31554398  0.44826399
   0.47910541  0.47064925  0.44575224
   0.70988452  0.89061950  0.07805560
   0.39446469  0.36003585  0.41654181
   0.59556560  0.79973797  0.34420115
   0.46152039  0.51763980  0.43417255
Direct configuration=    30
   0.41502092  0.29651688  0.43880093
   0.47568662  0.46443211  0.44152346
   0.85919900  0.18675992  0.26979747
   0.37908486  0.32572039  0.39186982
   0.60966415  0.84133326  0.32759017
   0.46476372  0.51742817  0.44816629
Direct configuration=    31
   0.40523408  0.27807536  0.42853220
   0.47224872  0.45844278  0.43731557
   0.00851179  0.48290559  0.46154108
   0.37117367  0.28530857  0.37692414
   0.62375625  0.88292376  0.31098079
   0.46811244  0.51354267  0.46185644
Direct configuration=    32
   0.39491182  0.25978463  0.41745272
   0.46876070  0.45324940  0.43345027
   0.15782936  0.77905079  0.65328372
   0.36980443  0.24360348  0.37183665
   0.63784670  0.92451508  0.29437611
   0.47194886  0.49957884  0.47130769
Direct configuration=    33
   0.38443505  0.24139941  0.40609581
   0.46532011  0.44873840  0.43013463
   0.30714702  0.07519058  0.84502685
   0.37036401  0.20322989  0.37016386
   0.65193566  0.96610373  0.27777089
   0.47514409  0.47723047  0.47407456
Direct configuration=    34
   0.37387207  0.22278345  0.39452632
   0.46193240  0.44437977  0.42705075
   0.45646637  0.37133224  0.03676515
   0.37197085  0.16568909  0.37106988
   0.66602278  0.00769334  0.26116603
   0.47769246  0.45298790  0.47403679
Direct configuration=    35
   0.36327834  0.20326039  0.38258680
   0.45846759  0.43997735  0.42373266
   0.60578572  0.66747181  0.22850154
   0.37395363  0.13907670  0.37643027
   0.68010788  0.04928498  0.24456353
   0.48116241  0.42923802  0.47680163
Direct configuration=    36
   0.35286849  0.18263621  0.37054235
   0.45531587  0.43542546  0.42114836
   0.75510869  0.96360564  0.42024100
   0.37374081  0.12569948  0.38304021
   0.69418260  0.09088293  0.22796385
   0.48086547  0.40727323  0.47075794
Direct configuration=    37
   0.34256570  0.16168600  0.35852911
   0.45275267  0.43017121  0.41965934
   0.90443340  0.25967612  0.61195671
   0.37143036  0.11797476  0.38835064
   0.70825730  0.13241244  0.21135408
   0.47431001  0.39213970  0.45251712
Direct configuration=    38
   0.33266325  0.14013289  0.34692881
   0.45032150  0.42468377  0.41837216
   0.05375809  0.55574635  0.80367247
   0.36430176  0.11750679  0.38868080
   0.72232444  0.17394469  0.19475116
   0.46618591  0.37978927  0.43186564
Direct configuration=    39
   0.32308270  0.11835230  0.33575289
   0.44765295  0.41986586  0.41688310
   0.20308249  0.85181606  0.99538286
   0.35331871  0.11976345  0.38392863
   0.73638578  0.21548046  0.17815429
   0.46090713  0.35940171  0.41362333
Direct configuration=    40
   0.31381730  0.09658552  0.32507927
   0.44519097  0.41410506  0.41534337
   0.35240444  0.14788313  0.18709240
   0.33854642  0.12182669  0.37314022
   0.75044658  0.25701524  0.16156067
   0.45315427  0.35037037  0.39599045
Direct configuration=    41
   0.30488368  0.07516316  0.31495956
   0.44286791  0.40723521  0.41346780
   0.50143809  0.44352164  0.38075878
   0.32007013  0.12019072  0.35373677
   0.76450573  0.29854646  0.14497109
   0.44374174  0.35465435  0.38239231
Direct configuration=    42
   0.29619012  0.05444943  0.30545011
   0.44146277  0.40017043  0.41063975
   0.63834790  0.73051920  0.58054101
   0.29872790  0.11004822  0.32700461
   0.77855859  0.34007946  0.12838460
   0.43541676  0.36991391  0.37411447
Direct configuration=    43
   0.28753259  0.03452291  0.29624618
   0.44016857  0.39366499  0.40848776
   0.77525947  0.01752187  0.78032512
   0.27694299  0.09043521  0.29659839
   0.79260825  0.38161186  0.11180211
   0.42577069  0.37846627  0.35771502
Direct configuration=    44
   0.27876723  0.01516301  0.28704501
   0.43874842  0.38702988  0.40589194
   0.91216598  0.30452758  0.98010961
   0.25644401  0.06395594  0.26614432
   0.80665480  0.42314626  0.09522472
   0.41765467  0.38863146  0.34665564
Direct configuration=    45
   0.26975830  0.99633373  0.27761558
   0.43697581  0.38042249  0.40230519
   0.04887720  0.59175295  0.18010752
   0.23886270  0.03108813  0.23842314
   0.82089899  0.46445684  0.07843346
   0.41377777  0.39848322  0.34750753
Direct configuration=    46
   0.26029854  0.97801238  0.26761435
   0.43482467  0.37410820  0.39782419
   0.18558613  0.87897268  0.38010363
   0.22669197  0.99212671  0.21757569
   0.83514674  0.50577300  0.06164439
   0.41445028  0.40480727  0.35909403
Direct configuration=    47
   0.25032355  0.95986320  0.25692188
   0.43259991  0.36790493  0.39320286
   0.32277593  0.16707935  0.57893589
   0.22023343  0.95019370  0.20621013
   0.84938775  0.54708817  0.04485814
   0.41600917  0.40981578  0.37234761
Direct configuration=    48
   0.23992010  0.94157585  0.24550617
   0.43059533  0.36114846  0.38885560
   0.45995938  0.45518679  0.77776663
   0.21892179  0.90992280  0.20352771
   0.86362899  0.58840122  0.02807237
   0.41492903  0.42146752  0.38231407
Direct configuration=    49
   0.22929309  0.92295079  0.23364456
   0.42833919  0.35536003  0.38440307
   0.59714121  0.74329341  0.97659440
   0.22029115  0.87369504  0.20619807
   0.87787256  0.62971592  0.01129013
   0.41687378  0.42150438  0.39354736
Direct configuration=    50
   0.21856479  0.90377147  0.22147383
   0.42588317  0.35072503  0.38010956
   0.73431672  0.03140288  0.17542392
   0.22287998  0.84412375  0.21258081
   0.89212036  0.67103217  0.99450924
   0.42121851  0.40768382  0.40286785
